nqpoint: 404    
npath: 4      
segment_nqpoint:
- 101
- 101
- 101
- 101
labels:
- [ 'K', 'Gamma' ]
- [ 'Gamma', 'L' ]
- [ 'L', 'W' ]
- [ 'W', 'X' ]
reciprocal_lattice:
- [   0.11650231,  -0.06726261,  -0.04750654 ] # a*
- [   0.00041436,   0.13529502,  -0.04758023 ] # b*
- [   0.00004518,  -0.00002603,   0.14266707 ] # c*
natom: 16     
lattice:
- [     8.566713087261560,    -0.027192551057195,    -0.002717656865897 ] # a
- [     4.259807495784309,     7.378207699675190,    -0.000002783777099 ] # b
- [     4.273287775231089,     2.451616654911746,     7.008419860221953 ] # c
points:
- symbol: Sn # 1
  coordinates: [  0.500000000000000,  0.500000000000000,  0.500000000000000 ]
  mass: 118.710000
- symbol: Sn # 2
  coordinates: [  0.000000000000000,  0.500000000000000,  0.500000000000000 ]
  mass: 118.710000
- symbol: Sn # 3
  coordinates: [  0.000000000000000,  0.000000000000000,  0.500000000000000 ]
  mass: 118.710000
- symbol: Sn # 4
  coordinates: [  0.500000000000000,  0.500000000000000,  0.000000000000000 ]
  mass: 118.710000
- symbol: Sn # 5
  coordinates: [  0.000000000000000,  0.500000000000000,  0.000000000000000 ]
  mass: 118.710000
- symbol: Sn # 6
  coordinates: [  0.500000000000000,  0.000000000000000,  0.000000000000000 ]
  mass: 118.710000
- symbol: Cd # 7
  coordinates: [  0.500000000000000,  0.000000000000000,  0.500000000000000 ]
  mass: 112.411000
- symbol: Mn # 8
  coordinates: [  0.000000000000000,  0.000000000000000,  0.000000000000000 ]
  mass: 54.938045
- symbol: Te # 9
  coordinates: [  0.252538473055882,  0.247461526613588,  0.252538473055882 ]
  mass: 127.600000
- symbol: Te # 10
  coordinates: [  0.775019031795819,  0.215718294850648,  0.224980982423850 ]
  mass: 127.600000
- symbol: Te # 11
  coordinates: [  0.218221649596858,  0.781778353237735,  0.218221649596858 ]
  mass: 127.600000
- symbol: Te # 12
  coordinates: [  0.775019017576169,  0.784281705149349,  0.224980968204173 ]
  mass: 127.600000
- symbol: Te # 13
  coordinates: [  0.224980982423850,  0.215718294850648,  0.775019031795819 ]
  mass: 127.600000
- symbol: Te # 14
  coordinates: [  0.781778350403167,  0.218221646762245,  0.781778350403167 ]
  mass: 127.600000
- symbol: Te # 15
  coordinates: [  0.224980968204173,  0.784281705149349,  0.775019017576169 ]
  mass: 127.600000
- symbol: Te # 16
  coordinates: [  0.747461526944080,  0.752538473386434,  0.747461526944080 ]
  mass: 127.600000

phonon:
- q-position: [    0.3750000,    0.3750000,    0.7500000 ]
  distance:    0.0000000
  band:
  - # 1
    frequency:    0.8184801163
    group_velocity: [    -0.2096821,    -3.5032343,    -2.0112073 ]
  - # 2
    frequency:    0.9207176105
    group_velocity: [    -2.5336433,    -0.9214881,    -1.5128297 ]
  - # 3
    frequency:    0.9691045742
    group_velocity: [    -1.3162872,    -5.0706879,    -6.0417532 ]
  - # 4
    frequency:    1.1481443537
    group_velocity: [    -1.1584808,    -4.4088264,    -7.4590985 ]
  - # 5
    frequency:    1.1924116300
    group_velocity: [    -6.3673693,    -2.0800386,    -7.6864696 ]
  - # 6
    frequency:    1.2403597120
    group_velocity: [    -2.2790525,    -8.0205650,    -3.4198779 ]
  - # 7
    frequency:    1.2704670726
    group_velocity: [    -2.1624841,   -15.1784377,    -8.3285034 ]
  - # 8
    frequency:    1.2814659908
    group_velocity: [    -7.4418781,     2.2928409,    -6.5322594 ]
  - # 9
    frequency:    1.3126977192
    group_velocity: [     1.0314570,    -3.4038434,    -1.8539576 ]
  - # 10
    frequency:    1.3500287995
    group_velocity: [     0.8252479,    -2.1102223,    -7.4970822 ]
  - # 11
    frequency:    1.4245270379
    group_velocity: [    -1.4807343,    -7.3915574,    -6.8173332 ]
  - # 12
    frequency:    1.5047656773
    group_velocity: [    -6.4384398,     6.1281725,    -7.3924428 ]
  - # 13
    frequency:    1.5336885783
    group_velocity: [    -7.7322301,     0.6089408,    -6.2651308 ]
  - # 14
    frequency:    1.6134776498
    group_velocity: [    -0.2976704,    -4.7380069,    -5.6174264 ]
  - # 15
    frequency:    1.7809812041
    group_velocity: [    -5.0964215,    -6.0872446,    -7.9403364 ]
  - # 16
    frequency:    2.1336218856
    group_velocity: [     4.3957782,     5.8198049,    10.3582442 ]
  - # 17
    frequency:    2.2086766773
    group_velocity: [     6.3379764,    -1.8075824,     3.5486771 ]
  - # 18
    frequency:    2.2508566206
    group_velocity: [    11.4860993,    -2.5788139,    12.5556899 ]
  - # 19
    frequency:    2.4050892330
    group_velocity: [     2.2141364,    -0.5681208,     8.5322368 ]
  - # 20
    frequency:    2.5563000211
    group_velocity: [     6.1237027,     2.9107028,    10.8894646 ]
  - # 21
    frequency:    2.6453913197
    group_velocity: [     2.3797939,     9.3155247,    11.7486852 ]
  - # 22
    frequency:    2.6674958495
    group_velocity: [    16.2331624,    -7.8190002,    14.9310031 ]
  - # 23
    frequency:    2.7708616238
    group_velocity: [     2.6731336,    14.9036606,    11.6692664 ]
  - # 24
    frequency:    2.7937571855
    group_velocity: [    -1.1716361,     6.6968956,     8.6929235 ]
  - # 25
    frequency:    2.8915553468
    group_velocity: [     8.2052825,    -0.2448553,     6.5672927 ]
  - # 26
    frequency:    2.9154914439
    group_velocity: [     7.3955835,     1.6083057,    -5.6136560 ]
  - # 27
    frequency:    3.0354112066
    group_velocity: [    -4.3301765,    -2.2077096,     6.7418401 ]
  - # 28
    frequency:    3.0666009610
    group_velocity: [    -8.1267729,     1.2028060,    -5.6443115 ]
  - # 29
    frequency:    3.1395388794
    group_velocity: [    -0.7349821,     1.4917766,     1.1693725 ]
  - # 30
    frequency:    3.2092458533
    group_velocity: [     3.3561577,     1.1334714,    -0.1327569 ]
  - # 31
    frequency:    3.2441521849
    group_velocity: [    -3.1090916,     4.2314509,    -1.8088690 ]
  - # 32
    frequency:    3.2975468928
    group_velocity: [    -6.6391805,     1.6164023,    -4.6161702 ]
  - # 33
    frequency:    3.3590800087
    group_velocity: [     1.0487673,    -0.4810240,    -1.6170522 ]
  - # 34
    frequency:    3.3703574907
    group_velocity: [    -1.8545541,    -1.4637534,     1.4776739 ]
  - # 35
    frequency:    3.3925867046
    group_velocity: [     0.3701500,    -0.6365087,    -1.7036369 ]
  - # 36
    frequency:    3.4660369287
    group_velocity: [     0.0863664,    -1.7416362,    -1.0284772 ]
  - # 37
    frequency:    3.4882698418
    group_velocity: [     0.6583993,    -2.7898785,    -4.2355022 ]
  - # 38
    frequency:    3.5523327172
    group_velocity: [    -5.0848490,    -0.4391133,    -3.6432430 ]
  - # 39
    frequency:    3.6166513353
    group_velocity: [     0.4485891,    -3.9312846,    -7.2565869 ]
  - # 40
    frequency:    3.6375636516
    group_velocity: [    -1.7876242,    -4.1322293,    -3.1031797 ]
  - # 41
    frequency:    3.7340224860
    group_velocity: [    -1.2732319,    -5.9671776,    -5.3086572 ]
  - # 42
    frequency:    3.7490526978
    group_velocity: [    -3.2092070,    -6.0662332,    -3.1324907 ]
  - # 43
    frequency:    3.8092037277
    group_velocity: [    -2.0250360,    -6.5231457,    -3.4255292 ]
  - # 44
    frequency:    3.8333491386
    group_velocity: [     1.0754947,    -6.1651051,    -6.1600141 ]
  - # 45
    frequency:    3.9812980067
    group_velocity: [    -1.4330174,    -4.4653916,    -4.4473370 ]
  - # 46
    frequency:    5.4031054770
    group_velocity: [     2.6019945,    -0.1465554,    -3.6708522 ]
  - # 47
    frequency:    5.5801364671
    group_velocity: [    -0.8529490,    -2.1318032,     3.4403335 ]
  - # 48
    frequency:    5.7038690044
    group_velocity: [     1.2337024,    -0.9897964,    -0.5559695 ]

- q-position: [    0.3712500,    0.3712500,    0.7425000 ]
  distance:    0.0008755
  band:
  - # 1
    frequency:    0.8208359271
    group_velocity: [    -0.1094427,    -3.4215456,    -1.9155012 ]
  - # 2
    frequency:    0.9223961624
    group_velocity: [    -1.0906249,    -1.4246555,    -0.2200543 ]
  - # 3
    frequency:    0.9758047419
    group_velocity: [    -2.5949997,    -4.5889119,    -6.7922049 ]
  - # 4
    frequency:    1.1550454608
    group_velocity: [    -0.8544131,    -4.3520462,    -7.5109548 ]
  - # 5
    frequency:    1.2009102598
    group_velocity: [    -5.9109421,    -2.2894389,    -6.9613566 ]
  - # 6
    frequency:    1.2454455830
    group_velocity: [    -2.0022121,    -6.3769914,    -3.1982536 ]
  - # 7
    frequency:    1.2800097438
    group_velocity: [    -1.1896093,   -13.0316628,    -6.3113383 ]
  - # 8
    frequency:    1.2903371808
    group_velocity: [    -9.3157575,    -0.4299997,    -8.5372629 ]
  - # 9
    frequency:    1.3143349008
    group_velocity: [     1.1990757,    -3.2580728,    -1.7486056 ]
  - # 10
    frequency:    1.3560996968
    group_velocity: [     0.2202549,    -2.6040970,    -8.4996879 ]
  - # 11
    frequency:    1.4323375750
    group_velocity: [    -1.5256735,    -8.1307591,    -7.6823769 ]
  - # 12
    frequency:    1.5113596552
    group_velocity: [    -6.4543274,     5.9357893,    -7.4754087 ]
  - # 13
    frequency:    1.5415247180
    group_velocity: [    -8.0697585,     0.9554866,    -6.5401409 ]
  - # 14
    frequency:    1.6188638106
    group_velocity: [    -0.3368402,    -4.8648520,    -5.6583424 ]
  - # 15
    frequency:    1.7904794727
    group_velocity: [    -5.2034602,    -6.0981144,    -7.9960518 ]
  - # 16
    frequency:    2.1225652508
    group_velocity: [     4.7400538,     5.9516539,    10.7977622 ]
  - # 17
    frequency:    2.2038010511
    group_velocity: [     6.8011365,    -2.4169086,     3.5957863 ]
  - # 18
    frequency:    2.2376207239
    group_velocity: [    11.0551291,    -2.1548322,    12.3379733 ]
  - # 19
    frequency:    2.3979794382
    group_velocity: [     2.2191722,    -0.0960262,     8.9091021 ]
  - # 20
    frequency:    2.5450027981
    group_velocity: [     6.5216255,     2.3471166,    11.1230539 ]
  - # 21
    frequency:    2.6331520663
    group_velocity: [     2.3844664,    10.7139492,    12.5230821 ]
  - # 22
    frequency:    2.6517536868
    group_velocity: [    16.5397838,    -8.8980966,    14.9523844 ]
  - # 23
    frequency:    2.7559605964
    group_velocity: [     2.8086617,    18.9128882,    14.0598764 ]
  - # 24
    frequency:    2.7879073573
    group_velocity: [    -1.4186711,     3.0676488,     6.3964515 ]
  - # 25
    frequency:    2.8831806465
    group_velocity: [     8.3488974,     0.1314459,     6.6678645 ]
  - # 26
    frequency:    2.9160532054
    group_velocity: [     7.1746637,     1.2530871,    -5.8510902 ]
  - # 27
    frequency:    3.0331937244
    group_velocity: [    -4.3353039,    -2.5200719,     6.4914087 ]
  - # 28
    frequency:    3.0738662684
    group_velocity: [    -8.0613158,     1.0751944,    -5.5522649 ]
  - # 29
    frequency:    3.1387604167
    group_velocity: [    -0.9518703,     1.4384120,     0.9926883 ]
  - # 30
    frequency:    3.2075936323
    group_velocity: [     3.2032696,     0.9595538,    -0.0224835 ]
  - # 31
    frequency:    3.2457576800
    group_velocity: [    -2.9070531,     4.1465491,    -1.9758231 ]
  - # 32
    frequency:    3.3032697946
    group_velocity: [    -6.4767067,     1.5285584,    -4.4772882 ]
  - # 33
    frequency:    3.3599023500
    group_velocity: [     1.0140017,    -0.0866852,    -1.7580864 ]
  - # 34
    frequency:    3.3704703642
    group_velocity: [    -1.7609420,    -1.3678636,     1.4460962 ]
  - # 35
    frequency:    3.3939191129
    group_velocity: [     0.0762458,    -0.8617953,    -1.7768206 ]
  - # 36
    frequency:    3.4671875223
    group_velocity: [     0.0814097,    -1.5794169,    -1.1136388 ]
  - # 37
    frequency:    3.4916590669
    group_velocity: [     0.7099159,    -2.7046591,    -4.1441250 ]
  - # 38
    frequency:    3.5572690828
    group_velocity: [    -5.1726284,    -0.1455809,    -3.6747015 ]
  - # 39
    frequency:    3.6223876426
    group_velocity: [     0.4758269,    -3.3149433,    -6.8043413 ]
  - # 40
    frequency:    3.6416856940
    group_velocity: [    -1.8403894,    -4.5242913,    -3.1211722 ]
  - # 41
    frequency:    3.7397853488
    group_velocity: [    -1.3012071,    -5.7262479,    -5.0782731 ]
  - # 42
    frequency:    3.7542702387
    group_velocity: [    -3.0524437,    -5.8700366,    -3.3542862 ]
  - # 43
    frequency:    3.8143598569
    group_velocity: [    -2.1509895,    -7.2070077,    -3.5850810 ]
  - # 44
    frequency:    3.8387605996
    group_velocity: [     1.0545928,    -5.9294971,    -5.9888963 ]
  - # 45
    frequency:    3.9861071127
    group_velocity: [    -1.1580551,    -4.5740380,    -4.2129464 ]
  - # 46
    frequency:    5.4046284994
    group_velocity: [     2.6810273,    -0.1551569,    -3.7398838 ]
  - # 47
    frequency:    5.5785923945
    group_velocity: [    -0.8678203,    -2.2193268,     3.5007462 ]
  - # 48
    frequency:    5.7039683336
    group_velocity: [     1.2676150,    -1.0004017,    -0.5492757 ]

- q-position: [    0.3675000,    0.3675000,    0.7350000 ]
  distance:    0.0017510
  band:
  - # 1
    frequency:    0.8230434559
    group_velocity: [     0.0130236,    -3.3184900,    -1.7976203 ]
  - # 2
    frequency:    0.9228503712
    group_velocity: [    -0.0409688,    -1.9063914,     0.7441674 ]
  - # 3
    frequency:    0.9832820725
    group_velocity: [    -3.4888773,    -4.1435397,    -7.2220444 ]
  - # 4
    frequency:    1.1618187680
    group_velocity: [    -0.5230505,    -4.2815487,    -7.5368226 ]
  - # 5
    frequency:    1.2085954352
    group_velocity: [    -5.2239126,    -2.5647631,    -5.9223089 ]
  - # 6
    frequency:    1.2501533293
    group_velocity: [    -2.1339771,    -4.9208723,    -3.5779360 ]
  - # 7
    frequency:    1.2875625444
    group_velocity: [    -2.2385911,    -8.9818099,    -5.1737748 ]
  - # 8
    frequency:    1.3014351446
    group_velocity: [    -8.8255628,    -4.8608229,    -9.0708300 ]
  - # 9
    frequency:    1.3158541816
    group_velocity: [     1.3687330,    -3.0298024,    -1.9180402 ]
  - # 10
    frequency:    1.3633056851
    group_velocity: [    -0.5491749,    -3.0549943,    -9.4765136 ]
  - # 11
    frequency:    1.4409719913
    group_velocity: [    -1.5691904,    -8.8665477,    -8.5452437 ]
  - # 12
    frequency:    1.5180713451
    group_velocity: [    -6.4827568,     5.7395770,    -7.5564699 ]
  - # 13
    frequency:    1.5496106980
    group_velocity: [    -8.3812825,     1.2857387,    -6.8077003 ]
  - # 14
    frequency:    1.6243243383
    group_velocity: [    -0.3801774,    -4.9857476,    -5.6866266 ]
  - # 15
    frequency:    1.8000627406
    group_velocity: [    -5.3116519,    -6.0937509,    -8.0433062 ]
  - # 16
    frequency:    2.1110417090
    group_velocity: [     5.1011477,     5.9900624,    11.1729037 ]
  - # 17
    frequency:    2.1987094557
    group_velocity: [     7.4545067,    -3.0382544,     3.9641831 ]
  - # 18
    frequency:    2.2247387140
    group_velocity: [    10.4044615,    -1.6477971,    11.8380911 ]
  - # 19
    frequency:    2.3904804966
    group_velocity: [     2.2117190,     0.4081590,     9.2748285 ]
  - # 20
    frequency:    2.5335116339
    group_velocity: [     6.9407113,     1.7469771,    11.3467018 ]
  - # 21
    frequency:    2.6198891531
    group_velocity: [     2.6647460,    12.0518135,    13.4722703 ]
  - # 22
    frequency:    2.6362847723
    group_velocity: [    16.5264738,    -9.9063996,    14.7251428 ]
  - # 23
    frequency:    2.7392443625
    group_velocity: [     2.6631011,    20.5629645,    15.1095414 ]
  - # 24
    frequency:    2.7837621360
    group_velocity: [    -1.3491287,     1.7406604,     5.4284106 ]
  - # 25
    frequency:    2.8747421124
    group_velocity: [     8.2678029,     0.3229891,     6.5615894 ]
  - # 26
    frequency:    2.9168222845
    group_velocity: [     7.0617518,     1.1131410,    -5.8698020 ]
  - # 27
    frequency:    3.0312399677
    group_velocity: [    -4.2856676,    -2.7941472,     6.1861366 ]
  - # 28
    frequency:    3.0810066021
    group_velocity: [    -7.9208873,     0.8773329,    -5.3007273 ]
  - # 29
    frequency:    3.1382439062
    group_velocity: [    -1.2175413,     1.4436864,     0.7424927 ]
  - # 30
    frequency:    3.2059836365
    group_velocity: [     3.0381189,     0.7990218,     0.0653481 ]
  - # 31
    frequency:    3.2473961209
    group_velocity: [    -2.6886278,     4.0671140,    -2.1032028 ]
  - # 32
    frequency:    3.3088285001
    group_velocity: [    -6.2749187,     1.4318883,    -4.3123478 ]
  - # 33
    frequency:    3.3607485757
    group_velocity: [     0.9518090,     0.2877666,    -1.8984792 ]
  - # 34
    frequency:    3.3705332352
    group_velocity: [    -1.6709315,    -1.2382639,     1.4191866 ]
  - # 35
    frequency:    3.3955008287
    group_velocity: [    -0.2231603,    -1.1098269,    -1.8651214 ]
  - # 36
    frequency:    3.4683596930
    group_velocity: [     0.0757523,    -1.4323002,    -1.1927027 ]
  - # 37
    frequency:    3.4949393771
    group_velocity: [     0.7610076,    -2.6095683,    -4.0579145 ]
  - # 38
    frequency:    3.5621855398
    group_velocity: [    -5.2420754,     0.1478144,    -3.7007935 ]
  - # 39
    frequency:    3.6276401600
    group_velocity: [     0.4440497,    -2.7447703,    -6.3301285 ]
  - # 40
    frequency:    3.6459251205
    group_velocity: [    -1.8364868,    -4.8693265,    -3.1331931 ]
  - # 41
    frequency:    3.7453232440
    group_velocity: [    -1.3560502,    -5.4554895,    -4.8142047 ]
  - # 42
    frequency:    3.7594708890
    group_velocity: [    -2.8062259,    -5.5588168,    -3.5070262 ]
  - # 43
    frequency:    3.8199246104
    group_velocity: [    -2.3505382,    -7.9619261,    -3.8556826 ]
  - # 44
    frequency:    3.8439794233
    group_velocity: [     1.0439224,    -5.6799017,    -5.7754286 ]
  - # 45
    frequency:    3.9906610897
    group_velocity: [    -0.8803630,    -4.6957716,    -3.9901048 ]
  - # 46
    frequency:    5.4061678100
    group_velocity: [     2.7592674,    -0.1648110,    -3.8067441 ]
  - # 47
    frequency:    5.5770353253
    group_velocity: [    -0.8819662,    -2.3083599,     3.5576967 ]
  - # 48
    frequency:    5.7040497693
    group_velocity: [     1.3014821,    -1.0091770,    -0.5405607 ]

- q-position: [    0.3637500,    0.3637500,    0.7275000 ]
  distance:    0.0026265
  band:
  - # 1
    frequency:    0.8250697715
    group_velocity: [     0.1604639,    -3.1930538,    -1.6542349 ]
  - # 2
    frequency:    0.9224541830
    group_velocity: [     0.6533921,    -2.3341208,     1.4375720 ]
  - # 3
    frequency:    0.9911774341
    group_velocity: [    -4.0391904,    -3.7650307,    -7.3924334 ]
  - # 4
    frequency:    1.1684297316
    group_velocity: [    -0.1676216,    -4.1961230,    -7.5338080 ]
  - # 5
    frequency:    1.2151458537
    group_velocity: [    -4.2863571,    -2.8703051,    -4.5866236 ]
  - # 6
    frequency:    1.2551399055
    group_velocity: [    -2.6874869,    -3.6950810,    -4.4772936 ]
  - # 7
    frequency:    1.2941654829
    group_velocity: [    -3.3683343,    -6.2263571,    -4.5273056 ]
  - # 8
    frequency:    1.3126721649
    group_velocity: [    -6.7626707,    -7.6718788,    -6.7419053 ]
  - # 9
    frequency:    1.3179143673
    group_velocity: [     0.3443894,    -2.9058246,    -4.2935428 ]
  - # 10
    frequency:    1.3716437787
    group_velocity: [    -1.4336436,    -3.4118557,   -10.3449582 ]
  - # 11
    frequency:    1.4504266972
    group_velocity: [    -1.6169287,    -9.5894099,    -9.4042587 ]
  - # 12
    frequency:    1.5249061214
    group_velocity: [    -6.5233369,     5.5403316,    -7.6367823 ]
  - # 13
    frequency:    1.5579329619
    group_velocity: [    -8.6641946,     1.5947569,    -7.0649374 ]
  - # 14
    frequency:    1.6298505211
    group_velocity: [    -0.4285165,    -5.0992603,    -5.7022564 ]
  - # 15
    frequency:    1.8097200865
    group_velocity: [    -5.4202178,    -6.0716380,    -8.0789710 ]
  - # 16
    frequency:    2.0991128011
    group_velocity: [     5.4692015,     5.9476982,    11.4874020 ]
  - # 17
    frequency:    2.1929168574
    group_velocity: [     8.5171885,    -3.6484649,     5.0846317 ]
  - # 18
    frequency:    2.2126649774
    group_velocity: [     9.3229156,    -1.0958206,    10.6187881 ]
  - # 19
    frequency:    2.3825997424
    group_velocity: [     2.1907850,     0.9408756,     9.6254163 ]
  - # 20
    frequency:    2.5218332773
    group_velocity: [     7.3792958,     1.1139170,    11.5611135 ]
  - # 21
    frequency:    2.6053943421
    group_velocity: [     3.4900962,    12.6812786,    14.5437425 ]
  - # 22
    frequency:    2.6213638024
    group_velocity: [    15.9267500,   -10.1968594,    14.3084189 ]
  - # 23
    frequency:    2.7217699551
    group_velocity: [     2.5032335,    21.3740756,    15.6369289 ]
  - # 24
    frequency:    2.7802695205
    group_velocity: [    -1.2338824,     1.2088766,     4.9751171 ]
  - # 25
    frequency:    2.8664465601
    group_velocity: [     8.0430177,     0.4287992,     6.3669897 ]
  - # 26
    frequency:    2.9176275508
    group_velocity: [     6.9858708,     1.0751106,    -5.7909710 ]
  - # 27
    frequency:    3.0295527432
    group_velocity: [    -4.1871127,    -3.0362944,     5.8383749 ]
  - # 28
    frequency:    3.0878824828
    group_velocity: [    -7.6839305,     0.5991377,    -4.8651528 ]
  - # 29
    frequency:    3.1380642330
    group_velocity: [    -1.5525310,     1.5290924,     0.3759477 ]
  - # 30
    frequency:    3.2044312111
    group_velocity: [     2.8661360,     0.6484413,     0.1356146 ]
  - # 31
    frequency:    3.2490348857
    group_velocity: [    -2.4632804,     3.9947982,    -2.1971353 ]
  - # 32
    frequency:    3.3141856222
    group_velocity: [    -6.0247674,     1.3271113,    -4.1160935 ]
  - # 33
    frequency:    3.3616316909
    group_velocity: [     0.8739635,     0.6456650,    -2.0325374 ]
  - # 34
    frequency:    3.3705498028
    group_velocity: [    -1.6153468,    -1.0941259,     1.3787285 ]
  - # 35
    frequency:    3.3973433137
    group_velocity: [    -0.5160180,    -1.3647272,    -1.9602553 ]
  - # 36
    frequency:    3.4695528055
    group_velocity: [     0.0688781,    -1.2958533,    -1.2658520 ]
  - # 37
    frequency:    3.4981124222
    group_velocity: [     0.8130495,    -2.5077093,    -3.9772583 ]
  - # 38
    frequency:    3.5670709850
    group_velocity: [    -5.2953173,     0.4383814,    -3.7213341 ]
  - # 39
    frequency:    3.6324472906
    group_velocity: [     0.3569949,    -2.2664901,    -5.8626436 ]
  - # 40
    frequency:    3.6502303778
    group_velocity: [    -1.7797639,    -5.1303539,    -3.1234871 ]
  - # 41
    frequency:    3.7506254030
    group_velocity: [    -1.4396819,    -5.1590832,    -4.5386572 ]
  - # 42
    frequency:    3.7645244545
    group_velocity: [    -2.4741598,    -5.1417113,    -3.5557268 ]
  - # 43
    frequency:    3.8260229094
    group_velocity: [    -2.6150476,    -8.7657274,    -4.2336832 ]
  - # 44
    frequency:    3.8489702069
    group_velocity: [     1.0405628,    -5.4179047,    -5.5248654 ]
  - # 45
    frequency:    3.9949711940
    group_velocity: [    -0.6005924,    -4.8307179,    -3.7808254 ]
  - # 46
    frequency:    5.4077225328
    group_velocity: [     2.8366079,    -0.1755877,    -3.8715019 ]
  - # 47
    frequency:    5.5754678071
    group_velocity: [    -0.8953853,    -2.3988626,     3.6111403 ]
  - # 48
    frequency:    5.7041114072
    group_velocity: [     1.3353100,    -1.0160805,    -0.5298007 ]

- q-position: [    0.3600000,    0.3600000,    0.7200000 ]
  distance:    0.0035020
  band:
  - # 1
    frequency:    0.8268780934
    group_velocity: [     0.3354589,    -3.0447734,    -1.4817501 ]
  - # 2
    frequency:    0.9214979857
    group_velocity: [     1.0759057,    -2.7094952,     1.9328643 ]
  - # 3
    frequency:    0.9992189224
    group_velocity: [    -4.3329400,    -3.4492860,    -7.3803613 ]
  - # 4
    frequency:    1.1748432056
    group_velocity: [     0.2064810,    -4.0941061,    -7.4989103 ]
  - # 5
    frequency:    1.2203099120
    group_velocity: [    -3.1981577,    -3.1274542,    -3.1362866 ]
  - # 6
    frequency:    1.2608984288
    group_velocity: [    -3.4946617,    -2.7173486,    -5.6062880 ]
  - # 7
    frequency:    1.3002124671
    group_velocity: [    -4.1834036,    -4.4720089,    -3.9873930 ]
  - # 8
    frequency:    1.3173065427
    group_velocity: [     0.5294311,    -4.4069241,    -1.1943888 ]
  - # 9
    frequency:    1.3266629114
    group_velocity: [    -6.0537394,    -7.7328090,    -9.7949716 ]
  - # 10
    frequency:    1.3810186193
    group_velocity: [    -2.3604187,    -3.6535413,   -11.0395027 ]
  - # 11
    frequency:    1.4606963448
    group_velocity: [    -1.6751029,   -10.2869739,   -10.2561141 ]
  - # 12
    frequency:    1.5318696657
    group_velocity: [    -6.5745095,     5.3365968,    -7.7170600 ]
  - # 13
    frequency:    1.5664761046
    group_velocity: [    -8.9164017,     1.8788381,    -7.3093132 ]
  - # 14
    frequency:    1.6354336578
    group_velocity: [    -0.4830386,    -5.2034766,    -5.7052430 ]
  - # 15
    frequency:    1.8194366853
    group_velocity: [    -5.5276677,    -6.0284775,    -8.0985661 ]
  - # 16
    frequency:    2.0868389824
    group_velocity: [     5.8351750,     5.8355615,    11.7434448 ]
  - # 17
    frequency:    2.1854081903
    group_velocity: [    10.0417445,    -3.9188677,     7.5244276 ]
  - # 18
    frequency:    2.2023890749
    group_velocity: [     7.7643185,    -0.8416483,     8.1065726 ]
  - # 19
    frequency:    2.3743487516
    group_velocity: [     2.1556167,     1.4981005,     9.9567749 ]
  - # 20
    frequency:    2.5099739450
    group_velocity: [     7.8353438,     0.4515562,    11.7667521 ]
  - # 21
    frequency:    2.5896550785
    group_velocity: [     4.7000153,    12.3758986,    15.5266438 ]
  - # 22
    frequency:    2.6070647211
    group_velocity: [    14.9025319,    -9.5422870,    13.9180102 ]
  - # 23
    frequency:    2.7039112282
    group_velocity: [     2.3674971,    21.8609822,    15.9493224 ]
  - # 24
    frequency:    2.7770570104
    group_velocity: [    -1.1138345,     0.9668910,     4.7308607 ]
  - # 25
    frequency:    2.8584124064
    group_velocity: [     7.7114559,     0.4883199,     6.1195244 ]
  - # 26
    frequency:    2.9183865856
    group_velocity: [     6.9180430,     1.0878948,    -5.6501858 ]
  - # 27
    frequency:    3.0281310975
    group_velocity: [    -4.0422414,    -3.2479024,     5.4547491 ]
  - # 28
    frequency:    3.0943217476
    group_velocity: [    -7.3219696,     0.2231713,    -4.2007207 ]
  - # 29
    frequency:    3.1383366432
    group_velocity: [    -1.9856775,     1.7182313,    -0.1623257 ]
  - # 30
    frequency:    3.2029474946
    group_velocity: [     2.6902122,     0.5053977,     0.1922874 ]
  - # 31
    frequency:    3.2506486510
    group_velocity: [    -2.2381590,     3.9302851,    -2.2626531 ]
  - # 32
    frequency:    3.3192950882
    group_velocity: [    -5.7151005,     1.2153918,    -3.8828047 ]
  - # 33
    frequency:    3.3625433830
    group_velocity: [     0.8006163,     0.9885363,    -2.1230008 ]
  - # 34
    frequency:    3.3705672887
    group_velocity: [    -1.6346056,    -0.9515250,     1.2737963 ]
  - # 35
    frequency:    3.3994428279
    group_velocity: [    -0.7913368,    -1.6124940,    -2.0534867 ]
  - # 36
    frequency:    3.4707657055
    group_velocity: [     0.0607221,    -1.1668847,    -1.3337170 ]
  - # 37
    frequency:    3.5011800266
    group_velocity: [     0.8670521,    -2.4007428,    -3.9021204 ]
  - # 38
    frequency:    3.5719158696
    group_velocity: [    -5.3344139,     0.7233311,    -3.7363443 ]
  - # 39
    frequency:    3.6368697396
    group_velocity: [     0.2301229,    -1.9006474,    -5.4226872 ]
  - # 40
    frequency:    3.6545376965
    group_velocity: [    -1.6848274,    -5.2929626,    -3.0815820 ]
  - # 41
    frequency:    3.7556965722
    group_velocity: [    -1.5474227,    -4.8404745,    -4.2707438 ]
  - # 42
    frequency:    3.7692923379
    group_velocity: [    -2.0771694,    -4.6472140,    -3.4849580 ]
  - # 43
    frequency:    3.8327591314
    group_velocity: [    -2.9244574,    -9.5802862,    -4.7037892 ]
  - # 44
    frequency:    3.8537022130
    group_velocity: [     1.0402644,    -5.1452341,    -5.2396187 ]
  - # 45
    frequency:    3.9990504210
    group_velocity: [    -0.3194369,    -4.9787276,    -3.5871421 ]
  - # 46
    frequency:    5.4092919053
    group_velocity: [     2.9129414,    -0.1875523,    -3.9342255 ]
  - # 47
    frequency:    5.5738924057
    group_velocity: [    -0.9080764,    -2.4907882,     3.6610379 ]
  - # 48
    frequency:    5.7041513161
    group_velocity: [     1.3691023,    -1.0210758,    -0.5169781 ]

- q-position: [    0.3562500,    0.3562500,    0.7125000 ]
  distance:    0.0043775
  band:
  - # 1
    frequency:    0.8284279743
    group_velocity: [     0.5401018,    -2.8740249,    -1.2764884 ]
  - # 2
    frequency:    0.9201932633
    group_velocity: [     1.2996984,    -3.0444636,     2.2837261 ]
  - # 3
    frequency:    1.0072177392
    group_velocity: [    -4.4468132,    -3.1812992,    -7.2444908 ]
  - # 4
    frequency:    1.1810243494
    group_velocity: [     0.5914515,    -3.9732347,    -7.4293386 ]
  - # 5
    frequency:    1.2240570781
    group_velocity: [    -2.1528230,    -3.2636555,    -1.8454051 ]
  - # 6
    frequency:    1.2675721022
    group_velocity: [    -4.2805468,    -1.9935285,    -6.5808239 ]
  - # 7
    frequency:    1.3058498166
    group_velocity: [    -4.8142559,    -3.3524518,    -3.5200544 ]
  - # 8
    frequency:    1.3187093964
    group_velocity: [     1.4147660,    -3.6652498,    -1.3408037 ]
  - # 9
    frequency:    1.3385782894
    group_velocity: [    -6.1964580,    -9.3418056,    -9.6843958 ]
  - # 10
    frequency:    1.3912701713
    group_velocity: [    -3.2581414,    -3.8007689,   -11.5375326 ]
  - # 11
    frequency:    1.4717710965